! NPort=2 DATA=701 NOISE=0 GROUPDELAY=0 COMPLEX_DATAFORMAT=RI
! NumOfBlock=1 NumOfParam=0
!
! .MODEL plant S TSTONEFILE=V:\EDA\users\dgarciam\oaks\vccd_hspice_ww52\deck_ww52\main_bode\shell_deck_AVP1p2_plant_touch.s2p TYPE=S
!   -- The above .MODEL line can be used for the S element in the netlist.
!
!
# Hz S RI R       0.100000000000000006
            10     0.0190616751561707432   -0.00867742551557198691      0.980788240225385799    -0.0085178325080766306      0.980788240228513297   -0.00851783250805459267    0.00879288361466001867   -0.00833149024667614001
       10.2329      0.019058124966752521   -0.00887951733780029812      0.980784767714494743   -0.00871620764156759952      0.980784767719049655   -0.00871620764156150717    0.00879288361466001867   -0.00852552551173967402
       10.4713     0.0190544074883380876   -0.00908631423584847775      0.980781131576093479   -0.00891920132730802603      0.980781131580947152   -0.00891920132729158953    0.00879288361466001867   -0.00872407828868056699
       10.7152     0.0190505148398139035   -0.00929792564432814321      0.980777324100465586   -0.00912692098798595017      0.980777324105572501   -0.00912692098798130284    0.00879288361466001867   -0.00892725365009976526
       10.9648     0.0190464387694480042   -0.00951446353536260919      0.980773337215526952   -0.00933947653728832254       0.98077333722173099   -0.00933947653727566253    0.00879288361466001867   -0.00913515910509817529
       11.2202     0.0190421706336154628   -0.00973604247701781618      0.980769162470409128   -0.00955698043705980639      0.980769162475097045   -0.00955698043704920376    0.00879288361466001867   -0.00934790465519678981
       11.4815     0.0190377013867266687   -0.00996277969271093349      0.980764791013140402   -0.00977954775582809757      0.980764791017894155   -0.00977954775580610995    0.00879288361466001867   -0.00956560285156400278
        11.749     0.0190330215523846213    -0.0101947951222119311      0.980760213575198492     -0.010007296228524672      0.980760213580933682    -0.0100072962285009167    0.00879288361466001867   -0.00978836885344205009
       12.0226     0.0190281212114735698    -0.0104322114840121397      0.980755420456421056    -0.0102403463178020755      0.980755420462212202    -0.0102403463177709597    0.00879288361466001867     -0.010016320488120449
       12.3027     0.0190229899758065368    -0.0106751543387772537      0.980750401494712265    -0.0104788212762572594      0.980750401500716018    -0.0104788212762379918    0.00879288361466001867    -0.0102495783117934752
       12.5893      0.019017616968000306    -0.0109237521544351211      0.980745146051039463    -0.0107228472104298391      0.980745146057164341    -0.0107228472104190526    0.00879288361466001867    -0.0104882656721733605
       12.8825     0.0190119907996351145    -0.0111781363727534236      0.980739642986503513    -0.0109725531460848295      0.980739642992313865    -0.0109725531460715016    0.00879288361466001867    -0.0107325087723308971
       13.1826     0.0190060995460943349    -0.0114384414771754716      0.980733880635772715    -0.0112280710947858103      0.980733880642452815    -0.0112280710947919148    0.00879288361466001867    -0.0109824367358123814
       13.4896     0.0189999307205206448    -0.0117048050623132349      0.980727846786723312     -0.011489536122188183      0.980727846792700753     -0.011489536122203596    0.00879288361466001867    -0.0112381816734239727
       13.8038     0.0189934712484056689    -0.0119773679048125782      0.980721528650705388    -0.0117570864176325326      0.980721528655836505    -0.0117570864176004836    0.00879288361466001867     -0.011499878751355273
       14.1254     0.0189867074398348823    -0.0122562740359187395       0.98071491283617318     -0.012030863365115935      0.980714912841483377    -0.0120308633651448945    0.00879288361466001867    -0.0117676662605569835
       14.4544     0.0189796249588549681    -0.0125416708153752304      0.980707985323494347    -0.0123110116164390649      0.980707985327442189    -0.0123110116164104298    0.00879288361466001867    -0.0120416856882737955
       14.7911     0.0189722087974246757    -0.0128337090073672982      0.980700731431306316    -0.0125976791649296295      0.980700731435290574    -0.0125976791649188204    0.00879288361466001867    -0.0123220817902074588
       15.1356     0.0189644432408806463     -0.013132542857520987      0.980693135788812009    -0.0128910174218038846      0.980693135792916615    -0.0128910174217964496    0.00879288361466001867    -0.0126090026651460418
       15.4882      0.018956311833038475    -0.0134383301719356307      0.980685182299601999    -0.0131911812933126499      0.980685182304261271    -0.0131911812932850175    0.00879288361466001867    -0.0129025998304555453
       15.8489     0.0189477973438485492    -0.0137512323978875878       0.98067685411294625    -0.0134983292601077096        0.9806768541162727    -0.0134983292600578553    0.00879288361466001867    -0.0132030282997224087
       16.2181     0.0189388817344624538    -0.0140714147060373163      0.980668133580692492    -0.0138126234579013744      0.980668133584255641     -0.013812623457836317    0.00879288361466001867    -0.0135104466616091465
       16.5959     0.0189295461140219778    -0.0143990460745706123       0.98065900222768343    -0.0141342297601542554      0.980659002231254684    -0.0141342297601012076    0.00879288361466001867    -0.0138250171607881365
       16.9824     0.0189197707061763455      -0.01473429937504964      0.980649440708400655    -0.0144633178623441074      0.980649440713539988    -0.0144633178623053364    0.00879288361466001867    -0.0141469057803175254
        17.378     0.0189095348007610742     -0.015077351460059632      0.980639428769307098    -0.0148000613679849236      0.980639428774180866     -0.014800061367934934    0.00879288361466001867    -0.0144762823257996304
       17.7828     0.0188988167133188334     -0.015428383252570026      0.980628945199094382    -0.0151446378762988693       0.98062894520352506    -0.0151446378762462343    0.00879288361466001867    -0.0148133205111310243
        18.197     0.0188875937438739427    -0.0157875798375426042      0.980617967793945611    -0.0154972290722483665      0.980617967797939416    -0.0154972290722084991    0.00879288361466001867    -0.0151581980465705889
       18.6209     0.0188758421210193372    -0.0161551305546946307      0.980606473300788317    -0.0158580208175949471      0.980606473306088189    -0.0158580208176271123    0.00879288361466001867    -0.0155110967278051601
       19.0546     0.0188635369535428143    -0.0165312290938690772      0.980594437377567796    -0.0162272032447656478      0.980594437381451356    -0.0162272032447135055    0.00879288361466001867    -0.0158722025277457934
       19.4984     0.0188506521846998343    -0.0169160735921819495      0.980581834533244767    -0.0166049708515053421      0.980581834537549324    -0.0166049708514523775    0.00879288361466001867    -0.0162417056891382243
       19.9526     0.0188371605300192702    -0.0173098667326914493      0.980568638079779231    -0.0169915225985967817       0.98056863808676098    -0.0169915225986010388    0.00879288361466001867    -0.0166198008201232372
       20.4174     0.0188230334191428206    -0.0177128158455661135      0.980554820079131195    -0.0173870620089162861      0.980554820083862078    -0.0173870620088912575    0.00879288361466001867    -0.0170066869911378836
        20.893     0.0188082409435563758    -0.0181251330109110965      0.980540351269181043    -0.0177917972680618278      0.980540351274715172    -0.0177917972680366916    0.00879288361466001867    -0.0174025678333317585
       21.3796     0.0187927517860064786    -0.0185470351639290994      0.980525201021682724    -0.0182059413280645545      0.980525201026876458    -0.0182059413280106948    0.00879288361466001867    -0.0178076516400041407
       21.8776     0.0187765331590203921    -0.0189787442017389854      0.980509337264042102    -0.0186297120120081962      0.980509337270716985    -0.0186297120119452188    0.00879288361466001867    -0.0182221514689771026
       22.3872     0.0187595507298432551    -0.0194204870926575242      0.980492726420133076    -0.0190633321213991777      0.980492726424686989    -0.0190633321213505395    0.00879288361466001867    -0.0186462852475680584
       22.9087     0.0187417685598123551    -0.0198724959870887237      0.980475333331141563    -0.0195070295451375449      0.980475333336474963    -0.0195070295451328229    0.00879288361466001867    -0.0190802758791941106
       23.4423     0.0187231490141683832    -0.0203350083310671337      0.980457121189495906     -0.019961037370896377      0.980457121194999615    -0.0199610373709034825    0.00879288361466001867    -0.0195243513523076367
       23.9883     0.0187036526956354532    -0.0208082669813960293       0.98043805145796914    -0.0204255939982642409      0.980438051464784799    -0.0204255939982901646    0.00879288361466001867    -0.0199787448510897782
       24.5471     0.0186832383521287095    -0.0212925203233096244      0.980418083790879469    -0.0209009432542529086      0.980418083796410378    -0.0209009432542422123    0.00879288361466001867      -0.02044369486841012
       25.1189     0.0186618627990571273    -0.0217880223898992385      0.980397175943841681    -0.0213873345104500269      0.980397175950110777    -0.0213873345104343242    0.00879288361466001867    -0.0209194453204191791
        25.704     0.0186394808201413298    -0.0222950329841342526      0.980375283693945221    -0.0218850228030326062      0.980375283698365463    -0.0218850228030349481    0.00879288361466001867    -0.0214062456638976495
       26.3027     0.0186160450784917941    -0.0228138178021103678      0.980352360736098105    -0.0223942689538891501      0.980352360740637474    -0.0223942689538347353    0.00879288361466001867    -0.0219043510148500126
       26.9153     0.0185915060153283296    -0.0233446485599148497      0.980328358596086247    -0.0229153396948299712      0.980328358602479022    -0.0229153396947688326    0.00879288361466001867    -0.0224140222698536902
       27.5423     0.0185658117428280089    -0.0238878031212236587       0.98030322652693247    -0.0234485077932390928      0.980303226531466732    -0.0234485077931993434    0.00879288361466001867    -0.0229355262290704028
       28.1838     0.0185389079436979465     -0.024443565627577362      0.980276911394477479    -0.0239940521799286884       0.98027691139943085    -0.0239940521799159659    0.00879288361466001867    -0.0234691357212216713
       28.8403      0.018510737748646422    -0.0250122266308873097      0.980249357575644353    -0.0245522580793196901      0.980249357580711744    -0.0245522580792685609    0.00879288361466001867    -0.0240151297309818788
       29.5121     0.0184812416240134336    -0.0255940832281201999      0.980220506839705519    -0.0251234171415053512      0.980220506844300066    -0.0251234171414643319    0.00879288361466001867    -0.0245737935281297552
       30.1995     0.0184503572440910535     -0.026189439197461091      0.980190298223721057    -0.0257078275763145403      0.980190298228212353    -0.0257078275762709189    0.00879288361466001867    -0.0251454187986739942
        30.903      0.018418019360358473    -0.0267986051372108916      0.980158667905002057    -0.0263057942893700006      0.980158667911241843      -0.02630579428937296    0.00879288361466001867    -0.0257303037779153081
       31.6228     0.0183841596659077844    -0.0274218986062533601      0.980125549077076164    -0.0269176290207539179      0.980125549081428571    -0.0269176290206308462    0.00879288361466001867    -0.0263287533861718964
       32.3594     0.0183487066563214896    -0.0280596442670028243      0.980090871795066043    -0.0275436504842785819      0.980090871798797614    -0.0275436504841926263    0.00879288361466001867    -0.0269410793649024205
       33.1131     0.0183115854768660657    -0.0287121740293346424      0.980054562841789156    -0.0281841845101578996      0.980054562846531474    -0.0281841845100870014    0.00879288361466001867    -0.0275676004163027677
       33.8844     0.0182727177645469752    -0.0293798271978877694      0.980016545573984876    -0.0288395641887272125      0.980016545576683273    -0.0288395641886718054    0.00879288361466001867    -0.0282086423438421621
       34.6737     0.0182320214947586656    -0.0300629506193390086      0.979976739754502502    -0.0295101300158602392      0.979976739758870119    -0.0295101300157457197    0.00879288361466001867    -0.0288645381945857038
       35.4813     0.0181894107971236618    -0.0307618988333498954      0.979935061396556506    -0.0301962300405237416       0.97993506140165032     -0.030196230040504795    0.00879288361466001867     -0.029535628403434433
       36.3078     0.0181447957876643695    -0.0314770342235356979      0.979891422582353622    -0.0308982200140331051      0.979891422587715555    -0.0308982200139917597    0.00879288361466001867     -0.030222260939153249
       37.1535     0.0180980823798375656    -0.0322087271714337764      0.979845731284734622    -0.0316164635403822364      0.979845731288436217    -0.0316164635402379837    0.00879288361466001867    -0.0309247914513465227
       38.0189     0.0180491720882391959    -0.0329573562105838908      0.979797891170358981    -0.0323513322282098087      0.979797891173987301    -0.0323513322280730223    0.00879288361466001867    -0.0316435834192953097
       38.9045     0.0179979618242243067    -0.0337233081829616532      0.979747801407453212    -0.0331032058446471683      0.979747801411358532    -0.0331032058445156971    0.00879288361466001867    -0.0323790083022370348
       39.8107     0.0179443436835624581    -0.0345069783964976062      0.979695356454030608    -0.0338724724698461488      0.979695356457290889    -0.0338724724696214258    0.00879288361466001867    -0.0331314456906013216
        40.738     0.0178882047261519385    -0.0353087707838295808      0.979640445840781249    -0.0346595286525795687      0.979640445843510177    -0.0346595286524681787    0.00879288361466001867    -0.0339012834581509728
       41.6869     0.0178294267398237984    -0.0361290980605789153      0.979582953938081258    -0.0354647795670595331      0.979582953943662793    -0.0354647795670565633    0.00879288361466001867    -0.0346889179154864363
        42.658      0.017767885995022329    -0.0369683818869420422      0.979522759731735526    -0.0362886391710314019      0.979522759735506732    -0.0362886391708397357    0.00879288361466001867    -0.0354947539645656049
       43.6516     0.0177034529997692758    -0.0378270530281598488      0.979459736554733618    -0.0371315303626336898      0.979459736560298277    -0.0371315303625611298    0.00879288361466001867     -0.036319205252192413
       44.6684     0.0176359922217199649    -0.0387055515155169741      0.979393751845379468    -0.0379938851404157049      0.979393751851775574    -0.0379938851404541464    0.00879288361466001867    -0.0371626943264688689
       45.7088      0.017565361817934777    -0.0396043268076268912      0.979324666863576998    -0.0388761447612183467      0.979324666869997862    -0.0388761447612554004    0.00879288361466001867    -0.0380256527913713574
       46.7735     0.0174914133418091478     -0.040523837952168712      0.979252336410775914    -0.0397787598989425076       0.97925233641640208    -0.0397787598988649932    0.00524016993585951774    -0.0389085214618967307
        47.863     0.0174139914423598885    -0.0414645537470614278      0.979176608534089388    -0.0407021908030040305      0.979176608539135795    -0.0407021908029667409    0.00524016993585951774    -0.0398117505191386209
       48.9779     0.0173329335458178857    -0.0424269529004739077      0.979097324214412534    -0.0416469074562991551      0.979097324220562393    -0.0416469074562726485    0.00524016993585951774    -0.0407357996646330461
       50.1187     0.0172480695186425503    -0.0434115241898255719      0.979014317046142502    -0.0426133897318719743      0.979014317050697858    -0.0426133897316515117    0.00524016993585951774    -0.0416811382739708108
       51.2861     0.0171592213363960244     -0.044418766621316684      0.978927412894760263    -0.0436021275483692988      0.978927412900246874    -0.0436021275483843007    0.00524016993585951774    -0.0426482455485210701
       52.4807      0.017066202705049438    -0.0454491895843253113      0.978836429546186992    -0.0446136210246464646       0.97883642955138106     -0.044613621024482214    0.00524016993585951774    -0.0436376106667561298
       53.7032      0.016968818698058552     -0.046503313008185089      0.978741176336077268    -0.0456483806306655637      0.978741176342520891    -0.0456483806306609563    0.00524016993585951774    -0.0446497329317460043
       54.9541     0.0168668653553472048    -0.0475816675119412891      0.978641453773103076    -0.0467069273388092954      0.978641453776340597    -0.0467069273386738759    0.00524016993585951774    -0.0456851219194966268
       56.2341     0.0167601292794357093    -0.0486847945542007443      0.978537053120289047    -0.0477897927681581181      0.978537053124429401    -0.0477897927681324372    0.00524016993585951774    -0.0467442976197392571
        57.544     0.0166483871966092156    -0.0498132465781927838      0.978427755993924286    -0.0488975193297319713      0.978427755998364956    -0.0488975193297271279    0.00524016993585951774    -0.0478277905781206297
       58.8844     0.0165314055163341446    -0.0509675871531380179      0.978313333915189154    -0.0500306603644012984      0.978313333919415884    -0.0500306603643502559    0.00524016993585951774    -0.0489361420310159972
        60.256     0.0164089398657678576    -0.0521483911101970829      0.978193547856479273    -0.0511897802781998562      0.978193547860798485    -0.0511897802779404179    0.00524016993585951774    -0.0500699040381228644
       61.6595     0.0162807346000135578    -0.0533562446744980032      0.978068147765203677    -0.0523754546708651014      0.978068147771141705    -0.0523754546709779764    0.00524016993585951774    -0.0512296396079703134
       63.0957     0.0161465222927110776    -0.0545917455889858225      0.977936872071183738    -0.0535882704611595345      0.977936872075441888    -0.0535882704610873423    0.00524016993585951774    -0.0524159228205517067
       64.5654     0.0160060232127359203    -0.0558555032342281099      0.977799447157571722     -0.054828826001098202      0.977799447162922553    -0.0548288260010383541    0.00524016993585951774    -0.0536293389389428388
       66.0693     0.0158589447653878501    -0.0571481387373353675      0.977655586834415669    -0.0560977311874060608      0.977655586840952107    -0.0560977311875741139    0.00524016993585951774    -0.0548704845187617252
       67.6083      0.015704980918672895    -0.0584702850744953997      0.977504991768133213    -0.0573956075620930539      0.977504991773524456    -0.0573956075619245845    0.00524016993585951774    -0.0561399675060945541
       69.1831        0.0155438116109079    -0.0598225871649724975      0.977347348895559742    -0.0587230884033158596      0.977347348901854374    -0.0587230884033283357    0.00524016993585951774    -0.0574384073265512898
       70.7946     0.0153751021157431129    -0.0612057019513638986       0.97718233081636241    -0.0600808188083951991      0.977182330823043288    -0.0600808188084824973    0.00524016993585951774     -0.058766434966249767
       72.4436     0.0151985023956968685    -0.0626202984700903464      0.977009595154479826    -0.0614694557634224426      0.977009595158713662    -0.0614694557630716329    0.00524016993585951774     -0.060124693040505918
        74.131     0.0150136464309291746    -0.0640670579107351507      0.976828783891946273    -0.0628896681998458024       0.97682878389747807    -0.0628896681999183277    0.00524016993585951774    -0.0615138358486289061
       75.8578     0.0148201515030603748    -0.0655466736578408232      0.976639522690273876    -0.0643421370416223243      0.976639522694764839      -0.06434213704171865    0.00524016993585951774    -0.0629345294202000027
       77.6247     0.0146176174713492663    -0.0670598513207768115      0.976441420159858242     -0.065827555231156118      0.976441420165562679    -0.0658275552312166251    0.00524016993585951774    -0.0643874515403232289
       79.4328     0.0144056260030571721    -0.0686073087438307111      0.976234067123167515     -0.067346627743996787      0.976234067129432614    -0.0673466277439031535    0.00524016993585951774    -0.0658732917645032806
       81.2831     0.0141837397823740847    -0.0701897760004610433      0.976017035833807167    -0.0689000715825494603      0.976017035838944391    -0.0689000715825718313    0.00524016993585951774    -0.0673927514120024884
       83.1764     0.0139515016877016524    -0.0718079953653092407      0.975789879168038388    -0.0704886157520508427      0.975789879174135621     -0.070488615751961553    0.00524016993585951774    -0.0689465435425180018
       85.1138     0.0137084339261515087    -0.0734627212673651386      0.975552129791660505    -0.0721130012140339671      0.975552129796298906    -0.0721130012138548049    0.00524016993585951774    -0.0705353929104508975
       87.0964     0.0134540371533202769    -0.0751547202148378501      0.975303299281392255     -0.073773980817028087      0.975303299286266245    -0.0737739808170531364    0.00524016993585951774    -0.0721600358978430334
       89.1251     0.0131877895389451733    -0.0768847706989227858      0.975042877226269589    -0.0754723192033984747      0.975042877231205418    -0.0754723192031217377    0.00524016993585951774    -0.0738212204225532215
       91.2011     0.0129091458111332269    -0.0786536630683170174      0.974770330286001796    -0.0772087926862626422      0.974770330289542186    -0.0772087926859221785    0.00524016993585951774    -0.0755197058181398678
       93.3254     0.0126175362635325711    -0.0804621993731412521      0.974485101215023186    -0.0789841891000797464      0.974485101219463856    -0.0789841890999557622    0.00524016993585951774    -0.0772562626873740665
       95.4993     0.0123123657131489761    -0.0823111931740346248      0.974186607855959119    -0.0807993076177297709      0.974186607860563658    -0.0807993076176118097    0.00168745625705923907     -0.079031672724353616
       97.7237     0.0119930124404088474    -0.0842014693218407079      0.973874242091937958    -0.0826549585334581532      0.973874242096116838    -0.0826549585332967962    0.00168745625705923907    -0.0808467285012272746
           100     0.0116588270732893573    -0.0861338636942730884      0.973547368758072018    -0.0845519630089113655      0.973547368761940812    -0.0845519630084546336    0.00168745625705923907    -0.0827022332201131638
       102.329     0.0113091314433642065     -0.088109222895447134      0.973205324523894078    -0.0864911527789641726       0.97320532452837738    -0.0864911527788270879    0.00168745625705923907    -0.0845990004251600397
       104.713      0.010943217394732363    -0.0901284039059619541      0.972847416729017644    -0.0884733698165217075       0.97284741673252273    -0.0884733698163822219    0.00168745625705923907    -0.0865378536754644601
       107.152      0.010560345562585784    -0.0921922736931742037      0.972472922181534249     -0.090499465948115379      0.972472922186245037    -0.0904994659478568497    0.00168745625705923907    -0.0885196261683273977
       109.648     0.0101597440983465237    -0.0943017087666235126      0.972081085923052091    -0.0925703024228238663      0.972081085928359845    -0.0925703024227281651    0.00168745625705923907    -0.0905451603178940995
       112.202    0.00974060736069537469    -0.0964575946786778576      0.971671119940128003    -0.0946867494257964265      0.971671119944268802    -0.0946867494258528675    0.00168745625705923907    -0.0926153072789319132
       114.815     0.0093020945726396409    -0.0986608254668113888      0.971242201847321907    -0.0968496855372665277      0.971242201852255183    -0.0968496855370876708    0.00168745625705923907    -0.0947309264189402783
        117.49     0.0088433284176190341     -0.100912303036929787      0.970793473526448403    -0.0990599971275776259      0.970793473530495388    -0.0990599971272483615    0.00168745625705923907    -0.0968928847252270575
       120.226    0.00836339361509730317     -0.103212936476183029      0.970324039718578391     -0.101318577689269398      0.970324039723657439     -0.101318577689317055    0.00168745625705923907    -0.0991020561520550847
       123.027    0.00786133544056744071     -0.105563641296309949      0.969832966591371304     -0.103626327099607687       0.96983296659555529     -0.103626327099566082    0.00168745625705923907     -0.101359320898963226
       125.893    0.00733615821296873614     -0.107965338599442295      0.969319280243902015     -0.105984150807205094      0.969319280249185677     -0.105984150806904681    -0.0018652574217412623     -0.103665564616306688
       128.825    0.00678682373427186292     -0.110418954164871699      0.968781965195945172     -0.108392958939528092      0.968781965200866235     -0.108392958939138001   -0.00897068477934226567     -0.106021677531260336
       131.826    0.00621224970039224722     -0.112925417446862658      0.968219962820995206     -0.110853665326716852      0.968219962825683234     -0.110853665326114514   -0.00897068477934226567      -0.10842855349341074
       134.896    0.00561130806091125756     -0.115485660483093236      0.967632169749912729     -0.113367186433796119      0.967632169754391147     -0.113367186433404668    -0.0018652574217412623     -0.110887088929917346
       138.038    0.00498282335344124583     -0.118100616698488009      0.967017436236898398     -0.115934440198518951      0.967017436240497963     -0.115934440198357538    -0.0018652574217412623     -0.113398181710136506
       141.254    0.00432557099631347697     -0.120771219613644079       0.96637456448888015     -0.118556344766317406      0.966374564493963528     -0.118556344765999314    -0.0018652574217412623     -0.115962729907017198
       144.544    0.00363827554662821172     -0.123498401439128144      0.965702306971800817     -0.121233817118263795      0.965702306976135461     -0.121233817117885084    -0.0018652574217412623     -0.118581630455555254
       147.911    0.00291960893567444479     -0.126283091549956705      0.964999364669401172     -0.123967771581740327       0.96499936467411751     -0.123967771581527733    -0.0018652574217412623     -0.121255777695694955
       151.356    0.00216818866821277823     -0.129126214836943976      0.964264385334276497     -0.126759118224828077      0.964264385338305163     -0.126759118224275352   -0.00897068477934226567     -0.123986061803149611
       154.882    0.00138257600289537486     -0.132028689930147963      0.963495961699914583     -0.129608761115388632      0.963495961703685788     -0.129608761114912208   -0.00897068477934226567      -0.12677336708540396
       158.489   0.000561274109694309686     -0.134991427279096937      0.962692629684056445     -0.132517596450598102      0.962692629687259882      -0.13251759645005412   -0.00897068477934226567     -0.129618570152656848
       162.181  -0.000297273789305330105     -0.138015327089040712      0.961852866566395348     -0.135486510537891208      0.961852866569995135     -0.135486510537439736   -0.00897068477934226567     -0.132522537942652091
       165.959   -0.00119468628594066061     -0.141101277100565997      0.960975089165445162     -0.138516377630508419      0.960975089169819996     -0.138516377630662879   -0.00897068477934226567     -0.135486125604694696
       169.824   -0.00213264566226956109     -0.144250150207788891       0.96005765200439086     -0.141608057600262405      0.960057652008171725     -0.141608057599249354   -0.00897068477934226567     -0.138510174222372523
        173.78   -0.00311289975981920986     -0.147462801908660734      0.959098845475521267     -0.144762393439098996      0.959098845480912177     -0.144762393439109321   -0.00897068477934226567     -0.141595508370275541
       177.828   -0.00413726385000290353     -0.150740067567052133      0.958096894025250445     -0.147980208597057378      0.958096894029683677     -0.147980208596871554   -0.00897068477934226567     -0.144742933509971444
        181.97   -0.00520762247063077943     -0.154082759497009475      0.957049954338557218     -0.151262304124427344      0.957049954343159648     -0.151262304124388847   -0.00897068477934226567      -0.14795323319551465
       186.209     -0.006325931256946693     -0.157491663842399959      0.955956113564199184     -0.154609455627768705      0.955956113568281585     -0.154609455627079811   -0.00897068477934226567     -0.151227166095449173
       190.546   -0.00749421872022093538     -0.160967537256462789      0.954813387565979443     -0.158022410021653403       0.95481338756983658     -0.158022410020734499    -0.0125233984581427649     -0.154565462816019572
       194.984   -0.00871458799375235404     -0.164511103364984784       0.95361971922048705     -0.161501882074551989      0.953619719224372275     -0.161501882074354453    -0.0160761121369434878     -0.157968822522239871
       199.526   -0.00998921850396838895     -0.168123048995804908      0.952372976774116586      -0.16504855073050867      0.952372976780141323     -0.165048550730002158    -0.0160761121369434878     -0.161437909341466151
       204.174    -0.0113203675861882624     -0.171804020200796631      0.951070952277490722     -0.168663055211414975         0.951070952282144     -0.168663055211532381    -0.0160761121369434878     -0.164973348549841914